% Model:              rad_study.mph
% Version:            COMSOL 6.2.0.290
% Date:               Jun 27 2025, 14:40
% Dimension:          3
% Nodes:              22475
% Expressions:        1
% Description:        Temperature
% Length unit:        m
% X                       Y                        Z                        T (K)
-0.0033302797104272455    0.07378103793120609      0.0737810379312061       460.1850172569805
-0.00375                  0.07302631578947366      0.07302631578947368      458.48926655814495
-0.0033446479366813307    0.07260172288141419      0.07500000001485237      462.81936477875024
-0.00375                  0.075                    0.075                    462.62895207799255
-0.003344647936681327     0.07500000001485232      0.07260172288141417      458.465104366186
-0.002165063509461032     0.07283493649053886      0.0728349364905389       458.0882954114618
-0.0025545694053031543    0.07211942397811669      0.0739981347400378       460.16627712338783
-0.0033155353578707436    0.07324886648871949      0.07077107501617429      455.30625118418476
-0.0011745437761616602    0.0738254562200228       0.07113807901851694      455.8464141498285
-0.0021871216556290413    0.07500000000057964      0.07069210052591823      455.88700339678445
-0.0019873313106133638    0.0715337395609992       0.07153373952900563      455.0583950144483
-0.0011745437761616596    0.07113807901851692      0.07382545622002275      459.5775937323802
-2.246626212266929E-4     0.07201484754305104      0.07201484747906389      456.44055983212286
-0.0033240770092871435    0.07077321982219607      0.07322801595887572      457.0703615781592
-0.0021871216556290604    0.07069210052591825      0.07500000000057966      463.10643456935014
-0.00375                  0.07105263157894735      0.07105263157894737      453.64814236951804
1.1596805439502035E-4     0.07019684309333268      0.07324568237437823      457.90582364587704
-0.0019112929289651095    0.06887292196792731      0.07343569729434607      455.5180765760731
-2.6368097259135224E-17   0.0696966991411009       0.07499999999999997      463.3293692598198
-0.0019127680700461284    0.07344404622214486      0.06888250737868162      453.0660991893489
1.0935263111688798E-17    0.075                    0.06969669914110078      454.60065660081085
8.144486871414414E-4      0.0726775836992114       0.07002168711578599      453.89280625110234
0.0015641409582842188     0.0734358590492035       0.06861590661614425      453.1359782650267
0                         0.0730086657388256       0.06770536487992652      451.2757493877826
-0.003272315446533765     0.07145829410314368      0.06886813904277508      450.9675802926321
0.0017198269713197256     0.07147414605196618      0.07147414602544241      455.6956530983662
-0.00144504325717007      0.07020084556543327      0.07020084555880235      451.6360220782098
0.001021786020303464      0.07020768384606858      0.07236294648220751      456.410352685151
-0.00375                  0.06907894736842105      0.06907894736842106      448.2833954569808
-0.003275105393974358     0.06883199214485038      0.07141508511970053      451.5808475131503
0                         0.06770536487992657      0.07300866573882568      453.7008980002211
0.0015641409582842641     0.06861590661614433      0.07343585904920355      458.5553241953422
-0.001829378641811843     0.06692709440925018      0.07155653795786002      449.3904177734011
0.003211000481831929      0.07178899951781074      0.06904969306633646      452.7684258547822
0.0018057615336402643     0.07158302663608986      0.0669350754135349       448.77091655609007
-0.0018627346429116206    0.07155644048926617      0.06695367617852924      448.5111980992873
0.0017662268199651232     0.06688644239761712      0.07156467771030413      449.9151954174008
0.0032110004818319336     0.06904969306633639      0.07178899951781072      456.419445560138
0.0037500000000000497     0.07124999999999998      0.07124999999999994      456.4935331595839
0.00375                   0.06932986312498693      0.06932986312498694      449.7893253848403
8.599134856598639E-4      0.0693490595519192       0.06934905953865733      449.6160847506127
-0.0011319519721366183    0.0696334787891724       0.06759390804378536      447.00462502136355
0                         0.0710173314776513       0.06571403061875222      446.1799927155379
-0.0032765695326989414    0.06947486494836909      0.06689548824172503      445.65332133266645
0.0013867804271178313     0.06949668290307855      0.06721628230129523      446.46595264772617
0.0032672689462340232     0.06965668865999598      0.06705382345681131      446.5222567651443
0.0032447043091784556     0.06702407256538585      0.06968279178561156      446.994721272155
0.0011650074941362725     0.06704980314797353      0.06953652364523884      446.7998660317656
-0.0022390251817112307    0.06713688546692849      0.06789961360757392      444.0353311463878
-0.003215943016455013     0.06680473205755716      0.06953244557437459      445.91845211117186
-0.00375                  0.06710526315789472      0.06710526315789474      442.70648667428446
-9.146893209059175E-4     0.06707553373056123      0.06939025550486616      446.3548729676744
0                         0.06571403061875226      0.07101733147765137      446.9921368683067
-0.0018170504538719207    0.06496219175903484      0.06960133556971453      443.54331887533806
0.0019136473685757778     0.06964430625423791      0.0650835050639331       443.5091319023044
-0.0019150858077874868    0.06957577850044283      0.0650161850210171       443.1594830521174
0.0018295366512037226     0.06504625791855206      0.06967557658157414      444.0228749604604
0.00375                   0.06734268294584982      0.06734268294584983      443.75649609706886
0.003280497727966858      0.06764442344004659      0.06507505205513382      440.79087690427735
-1.9448137072280495E-4    0.06772282516318362      0.06674127543408924      443.2662702853854
0                         0.06902599721647697      0.0637226963575779       440.618702935359
-0.002161790468025428     0.06676700019427236      0.06594438194681491      440.66827405216776
-0.0032720500183659874    0.06749914243703632      0.06490831682449073      440.11670582931913
0.0020965629013601833     0.06639184878817242      0.06626533730479939      440.8132083226058
-5.931043244083171E-4     0.06686133781824108      0.06450095435760148      438.790412250417
0.003253225352748575      0.06503802505267431      0.06767583657142766      441.0105903482754
-0.0032487292860489004    0.0648742015751058       0.06752307228768059      440.25063338407955
-0.00375                  0.0651315789473684       0.0651315789473684       437.15507351622085
9.126280747535439E-4      0.06513927413629823      0.06745562255446493      440.7956095840381
-0.0011659930136153794    0.06502640699057802      0.06750215705360973      440.5931876647556
0                         0.06372269635757795      0.06902599721647705      441.045199348098
-0.0018181419079318984    0.06297635138243673      0.06761463986044709      437.82236907994996
0.0018598185104524        0.06767494362983142      0.06306982145812337      437.8909923127736
-0.0018491181464268226    0.0676056752319181       0.06299194310259916      437.58220063566245
0.0018252561495070954     0.06305457522072423      0.06768727205705757      438.2291457355314
0.00375                   0.065355411603792        0.06535541160379202      438.05384843472905
0                         0.06703466295530267      0.0617313620964036       435.06986746319933
0.003272587245071671      0.06566352133984088      0.06307405316147134      435.19118212486
-0.001186208648816655     0.06469667842000518      0.06527921235762503      436.9233012070494
-0.0032730808277165687    0.06551907568185251      0.06293085548440634      434.600327121292
9.299092552262202E-4      0.06546898056455976      0.06316641947870576      435.03577745951276
-0.0011715857862451553    0.06549402812320614      0.06304863748155605      434.8350915423708
-0.00375                  0.0631578947368421       0.06315789473684211      431.69218523324037
0.0013775827023666534     0.064261777892642        0.06542684576788166      436.63772076784016
0.0032576179291801915     0.06305510315208696      0.06568205021188231      435.3632055724885
-0.0032142821830679316    0.06284463167934332      0.06557625758623908      434.67237716602267
0                         0.06173136209640363      0.06703466295530273      435.37761456201594
-0.0017867611090590485    0.060973307340443414     0.06563592135817083      432.26578887276804
0.00185393610834517       0.06568626636024676      0.06107640282513559      432.3727582644769
-0.0018379694797597235    0.06562213524472534      0.060999502187371185     432.0858139872644
0.0018157582156960717     0.061060699375589084     0.06570085499843888      432.6621609400331
0.00375                   0.06336814026173421      0.06336814026173421      432.51998595924454
0                         0.06504332869412836      0.05974002783522929      429.6150659655486
0.0032738848191179925     0.06367332198974632      0.061087136307646644     429.72482950489024
1.133380481058268E-17     0.06326301749928814      0.06326301749928814      432.17323802672314
-0.002378147866172442     0.06219612451816431      0.06221408282399388      429.1785738484231
-0.003271991951508988     0.0635401131104812       0.06094914083380191      429.1764236815355
0.001874999999999993      0.06232194320948226      0.062321943209482276     429.65080943534974
-5.909232263063894E-4     0.06288714660268986      0.06053107805271512      427.8544373162252
0.003239450986927062      0.06104394716436684      0.06371544760542887      429.9037968818708
-0.0032075548872915914    0.060855905908111574     0.06360330163680152      429.2358772843892
-0.00375                  0.06118421052631578      0.06118421052631579      426.34168511733475
9.375000000000029E-4      0.061030985522355786     0.06368263595180534      429.79580265322164
-0.0014843037808359102    0.06085213592584739      0.06347902481418587      429.16288888696334
0                         0.05974002783522933      0.06504332869412843      429.8841577968488
-0.0017843743420346502    0.058986543677832674     0.06365098538236462      426.87897922727655
0.0019197175974997372     0.06366976596755836      0.05911406967701183      426.97834966603705
-0.001835918153982294     0.06363714784129025      0.059012884757970244     426.69909345422496
0.0018127553907990096     0.059069523035242724     0.06371202621631414      427.26532949039927
0.00375                   0.061380868919676396     0.0613808689196764       427.11867553883496
0                         0.06305199443295405      0.05774869357405497      424.25717974026213
0.0032796112133835365     0.06167769229181767      0.059106058457443524     424.39055256458096
9.598587987498767E-4      0.061485913957131176     0.05920806581185791      424.24997583542626
-0.0011709572277518849    0.06053116586030936      0.0613228946999195       425.8094897618995
-0.0011558493893148029    0.06152340133312744      0.05908844272817872      424.0709405615101
-0.0032715575773795097    0.06156088870912368      0.05896881964449955      423.8615282555505
-0.00375                  0.059210526315789457     0.05921052631578946      421.095254628592
0.0013863070947744485     0.060277718496186954     0.06146004601408604      425.75740468086394
0.003250559594801865      0.05906908980997564      0.061713465850043135     424.56491626452737
-0.0032144597742431668    0.058886113437852015     0.06161732136101444      423.9223550998604
-6.034555079995215E-4     0.058196593660228        0.06101791874862529      422.35773297476226
0                         0.05774869357405502      0.06305199443295412      424.5347850321877
-0.00179463298626913      0.057006688849497215     0.06166325248475332      421.5918058336903
0.0018524860776193456     0.06170674020005583      0.05709571095872015      421.67612772793836
-0.0018354776780194187    0.061651798250946306     0.05702718546856283      421.4171529708264
0.0018166966508102141     0.05708116337890842      0.06172058430806219      421.9548727900002
0.00375                   0.05939359757761858      0.059393597577618584     421.83460081429354
0                         0.06106066017177973      0.055757359312880644     419.0081023915108
0.0020911162254655968     0.058446244048324554     0.058313440102801734     419.14937041595107
0.0032741462717904854     0.05969591307718501      0.05711038945868122      419.1439824192492
0.003254993588493294      0.05708611045324567      0.059719555625968125     419.31272468855116
-5.955987448181175E-4     0.058917391379114656     0.05655681057823822      417.33867889052635
-0.0022162268692322695    0.05832222652559241      0.05827952239780865      418.7939816038422
-0.0032714381421368624    0.05958143785867375      0.056989067328764076     418.64805698311915
-0.003230117371795977     0.05692945536555811      0.05962346418678414      418.70898274864896
-0.00375                  0.05723684210526315      0.05723684210526316      415.9474915733012
9.080861791406791E-4      0.05719657501946411      0.05951649074692221      419.1196107135086
-0.0011610155963276431    0.05706301519251112      0.05956997746685318      418.9265574671092
0                         0.055757359312880714     0.061060660171779815     419.2611446234813
-0.001817591376582578     0.05503416855460129      0.05967288854782627      416.3939850817264
0.0018380753663475348     0.05972232969197566      0.05509978083931304      416.47382553194905
-0.0018353756041479552    0.059666371062870524     0.05504167725858501      416.23469774374786
-0.0011911974896362362    0.056774122586449566     0.057356261843595796     415.6409892156263
0.0018161723582813339     0.05509108809222423      0.05973091954714042      416.73687683124365
0.00375                   0.05740632623556077      0.05740632623556079      416.64235757800986
0.0032707288774623017     0.05771142818036127      0.05511726835100064      413.9930180652277
0                         0.05906932591060543      0.05376602505170634      413.8536640819167
9.190376831737481E-4      0.05753171804304777      0.05522044361671648      413.86846785642416
-0.003271460342639145     0.057601934110379796     0.055009619613047595     413.5312149635257
0.0013676050207275553     0.056311403067636        0.05747568158192844      415.3045734028035
0.0032153377893981514     0.05504939234422202      0.057778532465237516     414.1564425110082
-0.0011762113297326907    0.05756682607671378      0.05511503161488206      413.71265272962165
-0.00375                  0.05526315789473684      0.05526315789473685      410.8894445444767
-0.0032214299571620055    0.05493970004379201      0.057654433559663945     413.584499045153
0                         0.053766025051706384     0.059069325910605486     414.07604964945125
-0.0018170504538719244    0.05304948629328496      0.057688630103964654     411.2796846500777
0.0018351039235437391     0.05773337598436806      0.05310846656043459      411.366609710752
-0.001835350979810148     0.05768092590445705      0.0530562125553056       411.14930738168744
-1.891856586133354E-17    0.05534110639411991      0.05534110639411989      411.255437863052
0.001805661534553501      0.05309683157934854      0.057744860499790836     411.59936291902255
0.00375                   0.05541905489350297      0.055419054893502975     411.53496812572456
0.0032633554574233335     0.0557320336909455       0.053119367941751684     408.932469493912
0                         0.05707799164943113      0.05177469079053204      408.7981384217243
-2.1504100214771455E-5    0.05503000019995203      0.05271631201371056      407.50106948006754
-0.0032717839859769692    0.055622563917210474     0.05303106645469788      408.5135819526459
0.003247802913171355      0.05310004615822564      0.05575118788857339      409.08213043742535
-0.0018749999999999962    0.0543152900391652       0.0543152900391652       408.5895655023325
-0.00375                  0.053289473684210525     0.05328947368421053      405.93750539439316
-0.003256338671015518     0.05300933023638761      0.055639447518810184     408.56601944055654
-9.375000000000116E-4     0.05304499041484863      0.055696640844298186     408.7885601693915
0                         0.05177469079053208      0.057077991649431184     408.95197916930255
-0.0018177178569262235    0.05106341663780196      0.055702037508839286     406.2588509066782
0.0018158020455846166     0.05111093235692203      0.05575105367672623      406.5274873882222
0.0018319917995704349     0.05574471036073887      0.051117333988255964     406.36174681274485
-0.00183822113332987      0.05569482411476722      0.051072391191515784     406.165726130597
8.971489726849223E-4      0.05307046627843702      0.054233682845218414     407.03789472124464
0.00375                   0.05343178355144516      0.05343178355144517      406.51356841296507
0.001112099894217451      0.05374737236880672      0.051089260239467915     403.9041296638473
0.0032695746774306427     0.053735651965275855     0.05113858383805843      403.9703465492161
0                         0.05508665738825683      0.04978335652935774      403.8467185452311
-0.0032515477355004184    0.05102365891227464      0.05366560415158681      403.64710884560174
-0.0010453748889957728    0.05375909277233754      0.051039936640877415     403.8071064712537
-0.0020907497779915746    0.05243152815641829      0.05229651675239713      403.7278674390671
-0.003272640627520077     0.0536412725731677       0.05105193932960673      403.5966803273731
-0.00375                  0.051315789473684204     0.05131578947368421      401.09365869726804
0.0023235744863424708     0.0522574892439122       0.052839097527302877     404.31008019535426
0.0032587089679036105     0.05112493656917345      0.05374917583513401      404.07171003570465
-9.088589284631103E-4     0.05122178373966889      0.05354109417518754      403.8317842908885
0                         0.04978335652935777      0.055086657388256875     403.9723332058824
-0.001813908008501272     0.04907613431112715      0.053717736994833495     401.3888088034323
0.00375                   0.051444512209387366     0.05144451220938737      401.5930001224738
0.001816172805766271      0.0491211750377094       0.05376100614230687      401.5940470247178
0.0018343708536431495     0.053753920862141494     0.049128429845761844     401.4606084158605
-0.0018461760823831976    0.053705710141814404     0.04908962221526099      401.2849075232784
0.0032461100522261205     0.049120980930252495     0.05177626604821498      399.2080378446562
0.00327097508681857       0.05174528274830095      0.04915174386044436      399.12189345306086
9.174047242175836E-4      0.05157195637810907      0.049259384834574316     399.0328922708565
0                         0.05309532312708252      0.04779202226818343      399.0028757700467
-0.0023266697434079814    0.04995025509034299      0.050534214947996384     398.572738366366
-0.0032416242282971514    0.04903083638848055      0.05169705932083895      398.84184166462046
-0.0011767263135440825    0.05161757891593165      0.049164375223205325     398.9236807206429
-0.0032708573513057825    0.051663201453754214     0.04906936561183633      398.7864483634317
-0.00375                  0.04934210526315789      0.049342105263157895     396.3523803488865
0.0011713852827050972     0.04885285081862711      0.05076445323526176      397.6470122699369
-0.0011633348717039736    0.048871138679263224     0.05181476903753949      398.87313725056885
-0.0018161070267631832    0.047091686237576424     0.051731568836811334     396.6322930851512
0                         0.04779202226818346      0.053095323127082567     399.13755184778984
0.00375                   0.04945724086732955      0.04945724086732956      396.81437249444065
0.0018112083482490712     0.047129335848375795     0.05177304650241807      396.80779726090617
0.0018348094484351557     0.05176376191468228      0.04713861882761285      396.66996763992563
-0.0018561438937373807    0.05171729227471353      0.047109205937470845     396.5141584595912
0.003228049648715173      0.04711083718454502      0.04980979826815843      394.49649359383255
0                         0.04580068800700915      0.05110398886590826      394.42649721735614
0.0018749999999999975     0.048438218078140596     0.04843821807814062      394.3863461319118
0.003271601364789655      0.04975582256349079      0.04716386403376604      394.3856973707248
-9.033394868159443E-4     0.04858472070700175      0.049752640422308536     396.0675504396368
0                         0.051103988865908216     0.04580068800700913      394.26393179207406
9.428053131326695E-6      0.05007775517642708      0.047773712007805724     395.4587990831872
-0.003249995862804325     0.04706273370303369      0.049708495178206684     394.13832219107786
-0.003283123428718889     0.04966962421859066      0.04710696912989961      394.0803743365704
-0.00183582173945546      0.0451150847360993       0.04973942437348381      391.96548434129807
-0.00375                  0.047368421052631574     0.04736842105263158      391.71112613523246
-2.400524765572653E-17    0.04741919528895163      0.04741919528895169      391.9606306107568
9.3749999999998E-4        0.04711945304257486      0.049771103472024444     394.4225222431485
0.00375                   0.04746996952527175      0.04746996952527176      392.1280108181774
0.0018343471194224618     0.04514834912507728      0.04977385896626593      392.1724215978678
0.001837099267569762      0.04977270921279451      0.04514938437430554      391.97717750703833
-0.0019264966500962212    0.04970665175500288      0.045156682379904195     391.8428192676251
0.0032509419994518115     0.04514980267419318      0.04779323836140035      389.8677088189133
0                         0.04380935374583483      0.04911265460473393      389.8023577041462
0.0032724294468472162     0.04776603348082938      0.045176166489878995     389.7427870798782
0                         0.049112654604733894     0.043809353745834806     389.6074702050064
-9.374999999999981E-4     0.045108159905681636     0.04775981033513121      389.6807398240306
0.0018184807742857598     0.04315228961154265      0.04779031239578015      387.5807961918343
-0.00322346591122148      0.045049237575706766     0.0477591333372419       389.52109169537925
-1.3283357552469647E-5    0.04709251043544605      0.04478536995518788      388.4795406722714
-0.0018750000000000242    0.04640696606552843      0.046406966065528486     389.55138567741346
-0.0032796830289645394    0.04769377934966831      0.045122328697012506     389.464432702285
-0.0018011998510387667    0.04311467354574714      0.047766163435367        387.3758307487353
-0.00375                  0.04539473684210525      0.04539473684210526      387.141798876074
9.025987083666583E-4      0.04512240002349437      0.04628784117548401      388.0312147561738
0.00375                   0.04548269818321394      0.04548269818321395      387.53297265631596
0.0018484332848951127     0.04777805480536366      0.04316377384484733      387.3719507293506
-0.0018674601361232084    0.04774234852266395      0.043143415463792446     387.2398955400418
0.0023262993541833463     0.04430891343232525      0.04489163400832009      385.5123943439937
0.0032479528753175933     0.04315775157239639      0.045808525844082376     385.30969915540567
0.00375                   0.043495426841156135     0.04349542684115614      382.9958965418463
0.0018169379247184702     0.04116175265282646      0.04580098461032109      383.0422225302026
0                         0.04181801948466052      0.04712132034355962      385.23326623954614
0.003271223704106521      0.0457790541504262       0.043186142475227215     385.1763436741901
0.0011125083265794075     0.0457942832641894       0.04314274256627596      385.1191749860329
0                         0.04712132034355959      0.041818019484660504     385.0377723129349
-9.005999255193791E-4     0.04328645664105732      0.04561220158586726      385.11852793635995
-0.0032213919775645116    0.0430677322323261       0.04578255588290933      384.9702755553415
-0.0010462070509476994    0.04580951237795258      0.043099342657324735     385.03969871872977
-0.0020924141018954312    0.04449770441234555      0.044380665829988925     385.01812005576545
-0.003284228278271481     0.045708952183633814     0.0431491300741106       384.91375854522676
-0.0018051509143875027    0.04113104259191291      0.045779468169737284     382.851153843153
-0.00375                  0.04342105263157894      0.04342105263157895      382.63676374451455
0.001914484801411825      0.045760115885772744     0.041200017653242424     382.8346410854336
-0.0018957910971716479    0.04574571696070492      0.04117002551221658      382.71082405629477
0.003280680567986057      0.043778203259174996     0.04120929881920895      380.66852291972367
1.0798364621699207E-17    0.043458239736367525     0.04345823973636755      382.8532941504689
0.003253934145646488      0.04117638270429488      0.043812445137468965     380.79027567111285
0.0018183144298702582     0.039172275980904794     0.043810429198323474     378.54255823239265
0                         0.0398266852234862       0.04512998608238531      380.7221693462053
0.0016269670728232528     0.04083169204802819      0.04214972326461523      378.47386468979136
0.00375                   0.04150815549909833      0.04150815549909834      378.5025902002654
-9.375000000000016E-4     0.04113974465109814      0.04379139508054769      380.6224861599421
-0.0032502288874292494    0.04112494842804864      0.043770137335979585     380.4848720581402
0                         0.045129986082385276     0.03982668522348619      380.5217498449793
-0.0018749999999999791    0.04245280407871006      0.0424528040787101       380.52394921155127
-0.0032884439625335414    0.04372413745431874      0.04117516263872065      380.4293460110503
-0.0018171921466108949    0.039150905315755734     0.04378993812492958      378.3741760868593
-0.00375                  0.041447368421052636     0.04144736842105264      378.19790373146697
0.0018524636995002407     0.04379646287124996      0.03918541564918992      378.35092130153225
5.286271535166578E-18     0.04280849373707338      0.04015684330762383      378.34894508692764
-0.0019294748287786876    0.043746937907607746     0.039199493155857724     378.24334181945363
0                         0.037835350962311914     0.043138651821211016     376.245008778761
8.440643263580614E-18     0.040487001391761465     0.040487001391761465     376.1757587766204
0.003274397368947826      0.04179784195241495      0.03921295438417237      376.20817788683354
0.003248062332540443      0.03918090066333199      0.04183140668442757      376.3088309881935
0.0018245757420971202     0.03718456779712576      0.041817800655800326     374.0855615255327
0.00375                   0.039520884157040526     0.03952088415704053      374.0607888849909
-0.0032606496704274163    0.03915918864871301      0.04177860221924423      376.05584752588044
0.0018408563741050587     0.041811250045451734     0.03719091503380666      373.92759973107917
0                         0.04313865182121097      0.03783535096231188      376.0662482094351
-0.00327463455665427      0.041761494622712995     0.039177208059513906     376.0082941324272
-0.001817347253737087     0.03716604393757911      0.04180495522350262      373.95199189373625
-0.0016247829622277068    0.038826605785686516     0.040150014509894194     373.9361310401188
-0.00375                  0.039473684210526314     0.03947368421052632      373.81758617610103
5.5891454801338954E-18    0.040817159475899055     0.03816550904644952      373.9234557478637
-0.0018636351008666804    0.04178667281783242      0.03718463757007136      373.8329887261439
0                         0.03584401670113759      0.04114731756003669      371.8280811915384
9.374999999999903E-4      0.037181430991701764     0.039833081421151335     371.8494211934031
0.0032507097053572714     0.03719553067645944      0.03983953763995104      371.89079984076164
0.0018750000000000064     0.03851884528226595      0.03851884528226594      371.8554065952843
0.0032731099141685093     0.03981070139976586      0.037222554769541144     371.82034751608404
0.0018013666342824972     0.035186294079414        0.0398376547940638       369.6966949020057
0.00375                   0.03753361281498271      0.037533612814982714     369.7140907433864
0.001847112742215099      0.039818530430362695     0.03520319197743283      369.57165259593825
-0.003249565924455443     0.037166210179611525     0.03981302762802691      371.69234736472373
0                         0.041147317560036666     0.03584401670113758      371.67831729279266
3.302201977330587E-18     0.03751680640749135      0.03751680640749136      369.63983947147784
-0.0032748532317553036    0.03978217425893336      0.037198441954509456     371.64483838109714
-0.0018000143714304575    0.035173958695301696     0.0398263663005409       369.59520327176034
-0.00375                  0.0375                   0.037500000000000006     369.5001290161362
-0.0018636143663098871    0.03980096946433656      0.03519891742341322      369.4889633104748
0                         0.033852682439963276     0.03915598329886238      367.48895167710685
0.0032136646568558056     0.03516403839389377      0.03789711705111382      367.55542776758006
0.0011661513808383563     0.03774406786717913      0.03529927269794985      367.46657831163975
0.0032707916016898354     0.03782498368872991      0.03523098203170839      367.5053299132596
0.00375                   0.03554634147292491      0.03554634147292492      365.42658457351183
0.00119392190346682       0.035484822901244044     0.03607675881617856      365.9136714319435